  TITLE = "Example: Simple 3D Volume Data" 
  VARIABLES = "X", "Y", "Z", "u", "v", "w" 
  ZONE I=          32 , J=          32 , K=          32 , DATAPACKING=POINT 
           1           1           1  0.15644085557140899      -0.96642033450397080      -0.28878568368142266     
           2           1           1   3.2244274442613768E-002  -1.0595131824529112      -0.41482127290605408     
           3           1           1 -0.31893112227941567      -0.72482615776578174      -0.63142108698709665     
           4           1           1 -0.67712622337071560      -0.28326677858203053      -0.61929605339097726     
           5           1           1 -0.73975180880071922        5.5633480783175149E-002 -0.42232532957117952     
           6           1           1 -0.51528006282394823        9.9726428533463307E-002 -0.16095593749679132     
           7           1           1 -0.25773679019802892      -0.20140205122157157       0.18987467695956020     
           8           1           1  -9.5576548069169792E-002 -0.52323752338755558       0.48964649279458083     
           9           1           1   5.7284693582571433E-002 -0.59466658796014293       0.39758921552310411     
          10           1           1  0.23421580889732577      -0.49444826105660072      -0.18789338688566831     
          11           1           1  0.32363163911603537      -0.30158136537903946      -0.87757445027185210     
          12           1           1  0.29794708580855844       -5.5681128783023809E-002  -1.1094101135511862     
          13           1           1  0.25037247129426315        9.4539854694647360E-002 -0.74523677222181628     
          14           1           1  0.16806383173868061        8.4099545409360987E-002 -0.10287096179897465     
          15           1           1  -1.7109660198464383E-002  -6.5977687965497162E-002  0.60450206860707234     
          16           1           1 -0.17594091816896290      -0.34754301344018901        1.2369027887606541     
          17           1           1  -8.9827240034899419E-002 -0.63182302322265271        1.3222037320841651     
          18           1           1  0.22697491754604490      -0.71458223034439960       0.63897017074054996     
          19           1           1  0.53787246461578275      -0.57127716188362698      -0.16329484600168148     
          20           1           1  0.67543724715901798      -0.46651264011069349      -0.35565266389528211     
          21           1           1  0.65344187381963159      -0.64672128191364009       -2.4683980364296282E-002
          22           1           1  0.51347621314456604      -0.88017117923355159       0.29853813227116166     
          23           1           1  0.22745938477264505      -0.72113981518335679       0.36438456526347107     
          24           1           1 -0.18166921210865580      -0.23488989193036511       0.26453994300470873     
          25           1           1 -0.53063475315106090       0.10024215989282720       0.14723353378802917     
          26           1           1 -0.60759772213167196        9.0249452700076060E-002   5.9075300751888174E-002
          27           1           1 -0.36284887444361852       -9.0890122260393030E-002  -7.9660807446824411E-002
          28           1           1   7.1789712886130758E-002 -0.20821279160952280      -0.35149957852099634     
          29           1           1  0.44431081758265883       -7.5481795257749104E-002 -0.69442640642735198     
          30           1           1  0.52431022862391341       0.19736214352839776      -0.91396461266971984     
          31           1           1  0.34877979642578993       0.14919135781067880      -0.82876374887290827     
          32           1           1  0.19148511410085250      -0.39597948057654875      -0.50169356682892108     
           1           2           1  -3.7537009077914046E-002 -0.56853525878245459       -3.3466667419835283E-002
           2           2           1 -0.40895673924026454      -0.64746743466118628      -0.24374962989807653     
           3           2           1 -0.84339085510894396      -0.49260451964811330      -0.46527555914240371     
           4           2           1  -1.0780940977810425      -0.25872516828244979      -0.34358846740648974     
           5           2           1 -0.93512909814043355        1.0602713189340029E-002  -2.2577826965487297E-002
           6           2           1 -0.54061926031157870        6.9923407450571184E-002  0.19232990003245162     
           7           2           1 -0.21214410669271305      -0.28318454341628641       0.27232754031218143     
           8           2           1 -0.12657079138322652      -0.77080103731793126       0.27073950803854141     
           9           2           1 -0.19000947432859050       -1.0180018625032090        4.6247129736011222E-002
          10           2           1 -0.24840127719147431      -0.96681384082304311      -0.50431957231044244     
          11           2           1 -0.24831394721666267      -0.67852421618803360       -1.0813002040174275     
          12           2           1 -0.18219944734879345      -0.28463903171165228       -1.2182159599030842     
          13           2           1  -7.5644140993800277E-002   4.3675818407778039E-002 -0.88295154429272138     
          14           2           1  -4.7895022566043499E-003  0.27119407886202762      -0.39369901040028338     
          15           2           1   1.9105268725845004E-002  0.26373213744448798       0.18834878180413261     
          16           2           1  0.10348064471682647      -0.17428151340750339       0.86807502969526296     
          17           2           1  0.30943483271972105      -0.77023118289763914        1.1438167867354951     
          18           2           1  0.51069512754491087      -0.97213264993294624       0.60064137678705554     
          19           2           1  0.51474808353004353      -0.69188729600374466      -0.26358296905543144     
          20           2           1  0.28895607669110562      -0.43229184941646431      -0.65217999119719339     
          21           2           1  -3.0830116596338275E-002 -0.60239440849686365      -0.43326264132841397     
          22           2           1 -0.32595457104798176      -0.87335326805372238        2.2020664778635651E-002
          23           2           1 -0.59183026826534291      -0.62014251153302169       0.40035450872880363     
          24           2           1 -0.86172108861048780        6.6480494072233276E-002  0.52622887246138250     
          25           2           1  -1.0947948311599429       0.47880431343971508       0.32906226928687110     
          26           2           1  -1.1699683864741373       0.29448929753523378      -0.11207622284772487     
          27           2           1 -0.98053323935137660      -0.18663455852428262      -0.65819186718714162     
          28           2           1 -0.53710564563999985      -0.49654118485356746       -1.1433869291466159     
          29           2           1  -2.6293057028818970E-002 -0.32147235141077868       -1.3587400913381735     
          30           2           1  0.28927271060463577       0.14152914578453088       -1.1883236564020370     
          31           2           1  0.32133757554127246       0.26713587849819431      -0.71646975603291352     
          32           2           1  0.19015186428411693      -0.13623129366904266      -0.21615802245783644     
           1           3           1  -9.9522048899031545E-002  -4.0744221144341952E-002   6.8811155659901424E-002
           2           3           1 -0.44987831854119792      -0.19982853169237297      -0.19958278648114186     
           3           3           1 -0.72707559807237265      -0.36088520802345303      -0.37348005465261458     
           4           3           1 -0.73620887889418274      -0.44963920463078788      -0.13870317905859109     
           5           3           1 -0.44547767065094135      -0.30013458749319566       0.25431010845551072     
           6           3           1  -4.0987621516406225E-002 -0.15524852941847023       0.43127408929569877     
           7           3           1  0.17945678363028073      -0.33584869883480600       0.40365930039877751     
           8           3           1   4.4485468451354038E-002 -0.69655751370024299       0.31645517464725814     
           9           3           1 -0.34311253993100294      -0.93948499643953631        4.8908054929453576E-002
          10           3           1 -0.72263891470778263      -0.99747709432033704      -0.50795379876260915     
          11           3           1 -0.88079611032188942      -0.85682759334007386       -1.0240851276306819     
          12           3           1 -0.78473475408296234      -0.53334391933538661       -1.1184827222291038     
          13           3           1 -0.57859060862488876      -0.11214785113958536      -0.93667456348061484     
          14           3           1 -0.37538222662458820       0.32440728963388399      -0.78412021500586104     
          15           3           1 -0.12024128443932328       0.47231865266324224      -0.52391162790620704     
          16           3           1  0.22632674848534190        2.2157950887521649E-002  -4.0163547312627723E-003
          17           3           1  0.51538248182209112      -0.65438961964683096       0.29888152835684395     
          18           3           1  0.52622505874844028      -0.81711596471605530      -0.11510881740420048     
          19           3           1  0.18976973836975902      -0.37220589821703720      -0.87475188232844137     
          20           3           1 -0.33004560136085542       -4.4602671787933035E-003  -1.1858976852414200     
          21           3           1 -0.78003696634245911      -0.24712035846544214      -0.80414297253006783     
          22           3           1  -1.0190187028878903      -0.69441387298923041       -7.7798304429030907E-002
          23           3           1  -1.0598863006379642      -0.53407495940525740       0.55130326128480711     
          24           3           1  -1.0004067139681434       0.22364855397743980       0.76406138411161373     
          25           3           1 -0.94910194179360308       0.75261741939727356       0.46060389307535821     
          26           3           1 -0.94610551311336366       0.56955875633474418      -0.17490964605658813     
          27           3           1 -0.91866941298021743       -5.1234764328438320E-002 -0.85574866121742199     
          28           3           1 -0.74544151360253630      -0.51817515365346023       -1.3381680240412899     
          29           3           1 -0.40821192408763712      -0.37080954880500488       -1.4268618686111474     
          30           3           1  -5.2516575835927337E-002  0.20539896200816990       -1.0827829343554090     
          31           3           1  0.14978455775516122       0.49330459390475989      -0.50053070614597339     
          32           3           1  0.12999921424666194       0.26342089947565062       -1.7976342600580064E-002
           1           4           1  -2.6219419049211767E-002  0.20110699933007992        2.6754903699729493E-002
           2           4           1 -0.15482379922203768       -3.4090966735035699E-002 -0.17047346500754179     
           3           4           1 -0.15563372485475768      -0.42696963389879544      -0.24793258292277665     
           4           4           1   3.1812660119407032E-002 -0.73228636579456408        1.2855386623736531E-002
           5           4           1  0.33242055905123846      -0.63257431580795709       0.31121057274235864     
           6           4           1  0.58373863931146874      -0.33174142691948894       0.34336149653830877     
           7           4           1  0.60098561951819596      -0.21972655624958878       0.23693976133035755     
           8           4           1  0.29764615604384720      -0.30414211452192785       0.17988190496610762     
           9           4           1 -0.22046658532379340      -0.43441690385046716        8.1242415551228131E-003
          10           4           1 -0.71678951250730205      -0.59099880982408337      -0.42507358102921483     
          11           4           1 -0.98377906839296947      -0.67196569359687741      -0.81301838244227564     
          12           4           1 -0.99099676555189498      -0.51436988487489210      -0.88656483030466993     
          13           4           1 -0.87252460163985202      -0.11887949639071806      -0.89314444693328465     
          14           4           1 -0.69515696954315609       0.34466113905208012       -1.0441177853656403     
          15           4           1 -0.38335722994454474       0.51223164540281607       -1.0535164380538220     
          16           4           1   2.4084364121175789E-002  0.13517578489965845      -0.73912597360834953     
          17           4           1  0.27311911923995935      -0.37763001191636381      -0.53656299285233899     
          18           4           1  0.14885084211955621      -0.34751480412643981      -0.85650401236096030     
          19           4           1 -0.29708070595241726       0.20859697881018241       -1.3565054906543002     
          20           4           1 -0.79369399288716380       0.52643805156552237       -1.3596261027991194     
          21           4           1  -1.0921523207329993        8.5456699214951859E-002 -0.70315351641574231     
          22           4           1  -1.1286495957211573      -0.62814809270381411       0.16954636088908709     
          23           4           1 -0.94557502465371979      -0.70048501437905486       0.73745113379668814     
          24           4           1 -0.60264953615605421       -2.1930475957892548E-002  0.77240882724266968     
          25           4           1 -0.23953793787294506       0.65738145101800749       0.37791018729577114     
          26           4           1  -6.1869108530354266E-002  0.76105536665329432      -0.16117193694412596     
          27           4           1 -0.14808285271171773       0.33147128474973719      -0.63206034229370900     
          28           4           1 -0.33679913185828997      -0.17268125382420108      -0.94367581706776604     
          29           4           1 -0.38859195996911944      -0.19553635749579418       -1.0127471935611374     
          30           4           1 -0.23601794300381812       0.25012522284187072      -0.80367284638559133     
          31           4           1  -2.4486407189480863E-002  0.53590154319053196      -0.40804014283966555     
          32           4           1   6.0351152787638779E-002  0.41441124840060384       -4.6338353935954479E-002
           1           5           1 -0.11832734624766474       0.16874632076680235       -1.0191619361218207E-002
           2           5           1 -0.10324310789293714       -5.3997814997866489E-002  -2.9390546966795439E-003
           3           5           1   7.8526860605299426E-002 -0.51324471304536756        8.8230688338749308E-002
           4           5           1  0.39743334007947767      -0.88085005469808286       0.33418574845512561     
           5           5           1  0.68874920239327730      -0.77054138859954879       0.42092961428990777     
           6           5           1  0.81221023453477159      -0.35063719147436501       0.15742335054003956     
           7           5           1  0.72062604823776488       -4.6205021797111001E-002 -0.19479865623370712     
           8           5           1  0.44331050669641470        5.3081779077977675E-002 -0.31774984411102791     
           9           5           1   6.5949196109311575E-002   4.5141863971201665E-002 -0.28311887109283851     
          10           5           1 -0.30112308129425552       -6.6980226582128322E-002 -0.32999287593872451     
          11           5           1 -0.56882105345499023      -0.18211405542546766      -0.42858813678130742     
          12           5           1 -0.70157224812534125      -0.11010576997968485      -0.50008197776272345     
          13           5           1 -0.71417062700107881       0.14704657630742685      -0.68418120191829046     
          14           5           1 -0.60962187443774418       0.39541080729559996      -0.94120477910260814     
          15           5           1 -0.37797695367032552       0.39241312850961818      -0.93132460117286131     
          16           5           1 -0.11373267320801461        9.1599241970763204E-002 -0.63077677915262176     
          17           5           1  -1.0758028043540660E-002 -0.12520438968705999      -0.49853742514161453     
          18           5           1 -0.16418777823513295       0.14997513894413056      -0.76720112405274044     
          19           5           1 -0.44533435411423739       0.69396902894047774       -1.0499386389106260     
          20           5           1 -0.62023280985784046       0.79427444358585464      -0.83173668212186236     
          21           5           1 -0.59330078691731414       0.12564169817716586       -9.0232823426548314E-002
          22           5           1 -0.45867032761515325      -0.75220487351730159       0.65280616521611889     
          23           5           1 -0.27324785392764916       -1.0158211529104288       0.86558895849103235     
          24           5           1   3.7856133517396223E-002 -0.51972997533059884       0.51567843909148137     
          25           5           1  0.45191123594909510       0.23049500420727698        1.8412187989541723E-002
          26           5           1  0.72467812918025531       0.72653286821788809      -0.24111300938850835     
          27           5           1  0.63065983470584497       0.70327186320089430      -0.27018045083011716     
          28           5           1  0.23755532942714214       0.28818095479965528      -0.28137683134531954     
          29           5           1 -0.14888223585760435        3.0096672818347263E-002 -0.34498241737350832     
          30           5           1 -0.28754274912394467       0.16775064115778118      -0.39213145845165581     
          31           5           1 -0.20680215757057013       0.31891205157523483      -0.32772635109855403     
          32           5           1 -0.11431604244947571       0.27030351853983936      -0.14442903141025359     
           1           6           1 -0.44022944751030568       0.21640911483257619        6.5313227783941552E-002
           2           6           1 -0.46526096831655206       0.10830066141608496       0.27372896105804356     
           3           6           1 -0.27499659597505094      -0.34630733515548418       0.55825231196883540     
           4           6           1   8.2478446346015144E-002 -0.75025568926045727       0.80815391588955432     
           5           6           1  0.35374535744854818      -0.67238361296679416       0.70910473140407804     
           6           6           1  0.40395317303161737      -0.28360819204107501       0.13827364596115338     
           7           6           1  0.32554396748061804       -2.6168150729791284E-002 -0.56526416807399993     
           8           6           1  0.24303382692380318        6.0415210251309026E-002 -0.86919949773350447     
           9           6           1  0.17172033573066559       0.16640402753357225      -0.59499958967352429     
          10           6           1   6.3297298457494100E-002  0.28814735720732421       -9.7352735889693703E-002
          11           6           1  -9.6706465830717903E-002  0.37166231064586852       0.18348213063595117     
          12           6           1 -0.22970155025368175       0.44203770644631962        8.9228263817486567E-002
          13           6           1 -0.23303710122910648       0.46185444495003503      -0.25531658534149115     
          14           6           1 -0.11045830877210158       0.34876473195173818      -0.46711114219127853     
          15           6           1   3.5946024855097874E-002   9.6540837904536131E-002 -0.22321375616405004     
          16           6           1  0.10753427499592955      -0.13545308695703806       0.23037968089083033     
          17           6           1   6.4627523759087424E-002  -4.9379229980062000E-002  0.34036514571992865     
          18           6           1  -4.1139681972138464E-002  0.42543011733584424        3.1422045409175953E-002
          19           6           1  -6.1431368261099850E-002  0.86245047609810710      -0.24051215616438970     
          20           6           1  0.12159761423088705       0.71599027342084232       -6.4803204345713794E-002
          21           6           1  0.41674668019532679       -3.5624374110471702E-002  0.52723584542265034     
          22           6           1  0.59443662731048241      -0.81193553519593309        1.0252721745555995     
          23           6           1  0.58927214526452087       -1.0727000766307884       0.88735021583464235     
          24           6           1  0.57649004202958276      -0.77676421455206879       0.16989864790283488     
          25           6           1  0.69219570800344221      -0.14440503453700110      -0.46317411436705686     
          26           6           1  0.82397224016098236       0.53836033308608566      -0.47196254397800119     
          27           6           1  0.73896687049643384       0.83011309779708586       -3.0796259033420842E-002
          28           6           1  0.36151096659404014       0.53914602204653650       0.33767794916953880     
          29           6           1 -0.11623927185110848       0.10841702372061027       0.40370381236467134     
          30           6           1 -0.41203163987925018       -4.0650443540986431E-002  0.23363941413779882     
          31           6           1 -0.44371573071333259       -1.9752408254255227E-003   1.0823958126462530E-002
          32           6           1 -0.39730372902409100        9.6983026932046967E-002  -5.4890824210595712E-002
           1           7           1 -0.63379020083993010       0.47943765050581272       0.15644879230535430     
           2           7           1 -0.69945701701903407       0.52692370521319420       0.43604104919757292     
           3           7           1 -0.56216382204329918        7.9005154925225640E-002  0.81890429619486438     
           4           7           1 -0.28446139657285130      -0.37552956790686226        1.0512687196770261     
           5           7           1 -0.16225113608833042      -0.37661352464813286       0.87599031325839971     
           6           7           1 -0.27436109379448709      -0.16906501219649955       0.20456275500541388     
           7           7           1 -0.37522513441103267      -0.19426587486284708      -0.66639256214087572     
           8           7           1 -0.26787720861146541      -0.29459375450561975       -1.0845347170528639     
           9           7           1  -3.7879128089768566E-002  -8.4675024983950312E-002 -0.64214799986880133     
          10           7           1  0.10798629818891653       0.36961679744149567       0.24481649746003767     
          11           7           1   9.6476818008625481E-002  0.72537351673082140       0.77801889973409921     
          12           7           1   6.3243340897210551E-002  0.77317609540471799       0.64393338579610271     
          13           7           1  0.16281642703238558       0.51173840170387075       0.18568714249433149     
          14           7           1  0.34515306051120731        8.0772280203889962E-002   4.9698625274557928E-003
          15           7           1  0.43976719576741075      -0.32240906630361960       0.37317225125023923     
          16           7           1  0.38596343124783078      -0.46747828705383854       0.86452598117290014     
          17           7           1  0.26108411715589036      -0.17892492264871102       0.89281391115729813     
          18           7           1  0.19368201004795071       0.37900973872186872       0.51045814478571094     
          19           7           1  0.32043712999781820       0.70866592679273610       0.22848245400675260     
          20           7           1  0.67709303529963494       0.47705869830995734       0.37730405431035646     
          21           7           1   1.0781185563232074      -0.10748547579935191       0.87354076966390459     
          22           7           1   1.2440053736514658      -0.54432825997481871        1.2349987015218098     
          23           7           1   1.0765100712052276      -0.62990994962854285       0.92779721596893872     
          24           7           1  0.73029221489993512      -0.49147441847908813        8.0423745904790733E-003
          25           7           1  0.44029408931258074      -0.14262521163766784      -0.73564890885412648     
          26           7           1  0.31169413643521832       0.40174383108548317      -0.60137784271673600     
          27           7           1  0.23428323505726370       0.73818569104750564       0.16743090816222606     
          28           7           1   2.2931191922336377E-002  0.52459317675769523       0.81369666870745982     
          29           7           1 -0.32478697405393647        4.7650296267871844E-002   1.0131882707094562     
          30           7           1 -0.59252578620424390      -0.24370405611558735       0.85135878656496022     
          31           7           1 -0.63278856074090961      -0.22795736146308460       0.48137050415258731     
          32           7           1 -0.58245890730642202        7.8469259091948212E-002  0.16859183664696309     
           1           8           1 -0.46615365552934929       0.71677268174284625       0.17632134508511299     
           2           8           1 -0.42705675479550020       0.84103514088790432       0.35704687669624546     
           3           8           1 -0.27203404772739298       0.43417881636573352       0.62621461146142465     
           4           8           1 -0.11496358331868856        3.6973026221763503E-002  0.74789769062385081     
           5           8           1 -0.21479276187804563        5.0906336700687234E-002  0.59128636977052196     
           6           8           1 -0.55487123262497451        8.2296468152360858E-002   8.6549469310211791E-002
           7           8           1 -0.79753865858237538      -0.30353676053929379      -0.60478566195109695     
           8           8           1 -0.69932547491531383      -0.68328225343415383      -0.91301326658454063     
           9           8           1 -0.38004342390202978      -0.43737832483721067      -0.40505130288244939     
          10           8           1 -0.13150232472407514       0.27780844966415252       0.51302012338181091     
          11           8           1  -6.3078102575659947E-002  0.81509412321741948        1.0264520838092492     
          12           8           1  -2.3318369461482830E-002  0.78997091438360401       0.86454876832879946     
          13           8           1  0.13313925629004078       0.31002285654492445       0.41064956271984082     
          14           8           1  0.33357787154471780      -0.27306454362564664       0.19885939605539388     
          15           8           1  0.42272944570876492      -0.67854378765929180       0.42046313122244167     
          16           8           1  0.36622193846613149      -0.74149459087306124       0.69882533700635396     
          17           8           1  0.23272981522237543      -0.40743452967336069       0.58543935329741181     
          18           8           1  0.12927572684657662        9.4805112067820607E-002  0.23134787254996783     
          19           8           1  0.20236608616126517       0.36523176756137843       0.13165242253194870     
          20           8           1  0.52212680106900433       0.25314369793021557       0.47717275158644995     
          21           8           1  0.93122045517261576        9.8729493627494266E-003   1.0281843853599275     
          22           8           1   1.1431066685667302       -2.4004706291225697E-002   1.3095873399483104     
          23           8           1  0.97959621998575463       0.11974631188063536       0.93528360285220646     
          24           8           1  0.49663907201855573       0.17772886612001565        3.6611053129193660E-002
          25           8           1  -3.0048498733026729E-002  0.20510008181396683      -0.61998299530189471     
          26           8           1 -0.30045678673878368       0.40020678034698443      -0.35576313008426824     
          27           8           1 -0.28856351804648073       0.57098017848146132       0.49941321663612409     
          28           8           1 -0.25855332735311942       0.41956593310758000        1.0737188713932988     
          29           8           1 -0.39907372236498517        5.6558180976027300E-002   1.1223038724612566     
          30           8           1 -0.58261817911573766      -0.21795526931210280       0.92211632362301721     
          31           8           1 -0.60671130223914971      -0.20439354918117703       0.60946322890605775     
          32           8           1 -0.51453845850171909       0.18944430741128410       0.28478174901398795     
           1           9           1 -0.20243278361425532       0.69811270607331488       0.12936215126298165     
           2           9           1  -8.7342507131315389E-003  0.72565387913834578        8.4544707008105124E-002
           3           9           1  0.21750387350322650       0.41561132262015427        5.7581006530729797E-002